                         Program Version 6.0.1  -  RELEASE   -
|  1> ! r2scan-3c optTS freq xyzfile
|  2> %pal nprocs 16 end
|  3> %maxcore 500
|  4> %geom
|  5>     Calc_Hess true
|  6> end
|  7> * xyzfile 0 1 dihedral_EtF2.xyz
|  8>
|  9>
| 10>                          ****END OF INPUT****
 Total Charge           Charge          ....    0
 Multiplicity           Mult            ....    1
 Number of Electrons    NEL             ....   34
Dispersion correction           -0.001041500
FINAL SINGLE POINT ENERGY      -278.251141491857
Dispersion correction             ... done (  0.0 sec)
Dispersion correction           -0.001036269
FINAL SINGLE POINT ENERGY      -278.255481564952
Dispersion correction             ... done (  0.0 sec)
Dispersion correction           -0.001035898
FINAL SINGLE POINT ENERGY      -278.255522448447
Dispersion correction             ... done (  0.0 sec)
                    ***********************HURRAY********************

CARTESIAN COORDINATES (ANGSTROEM)
---------------------------------
  C     -1.332224   -1.570736   -0.001735
  H     -1.453283   -2.643548    0.191056
  H     -2.293949   -1.154596   -0.325204
  C     -0.814983   -0.839382    1.264872
  H     -1.517410   -0.056741    1.575926
  H     -0.676803   -1.545601    2.092458
  F     -0.436272   -1.428293   -1.048956
  F      0.407215   -0.235418    1.017364

 Multiplicity           Mult            ....    1
 Number of Electrons    NEL             ....   34
 Basis Dimension        Dim             ....  106

ORBITAL ENERGIES
----------------

  NO   OCC          E(Eh)            E(eV)
   0   2.0000     -24.473996      -665.9713
   1   2.0000     -24.473960      -665.9703
   2   2.0000     -10.120603      -275.3956
   3   2.0000     -10.120497      -275.3927
   4   2.0000      -1.164162       -31.6784
   5   2.0000      -1.148404       -31.2497
   6   2.0000      -0.732039       -19.9198
   7   2.0000      -0.607879       -16.5412
   8   2.0000      -0.486936       -13.2502
   9   2.0000      -0.485623       -13.2145
  10   2.0000      -0.462123       -12.5750
  11   2.0000      -0.438374       -11.9288
  12   2.0000      -0.422804       -11.5051
  13   2.0000      -0.346125        -9.4185
  14   2.0000      -0.330133        -8.9834
  15   2.0000      -0.301988        -8.2175
  16   2.0000      -0.292556        -7.9608
  17   0.0000       0.007719         0.2100
  18   0.0000       0.094390         2.5685
  19   0.0000       0.121549         3.3075
  20   0.0000       0.122335         3.3289
  21   0.0000       0.146786         3.9943

MULLIKEN ATOMIC CHARGES
-----------------------
   0 C :    0.007002
   1 H :    0.131404
   2 H :    0.131380
   3 C :    0.006813
   4 H :    0.131397
   5 H :    0.131420
   6 F :   -0.269695
   7 F :   -0.269720
Sum of atomic charges:    0.0000000

LOEWDIN ATOMIC CHARGES
----------------------
   0 C :    0.048093
   1 H :    0.155251
   2 H :    0.155238
   3 C :    0.048074
   4 H :    0.155244
   5 H :    0.155264
   6 F :   -0.358562
   7 F :   -0.358602

  Mayer bond orders larger than 0.100000
B(  0-C ,  1-H ) :   0.9705 B(  0-C ,  2-H ) :   0.9704 B(  0-C ,  3-C ) :   0.9228
B(  0-C ,  6-F ) :   0.8974 B(  3-C ,  4-H ) :   0.9705 B(  3-C ,  5-H ) :   0.9705
B(  3-C ,  7-F ) :   0.8975

Dispersion correction           -0.001035856
FINAL SINGLE POINT ENERGY      -278.255522836052

DIPOLE MOMENT
-------------

Method             : SCF
Type of density    : Electron Density
Multiplicity       :   1
Irrep              :   0
Energy             :  -278.2609023335048732 Eh
Relativity type    :
Basis              : AO
                                X                 Y                 Z
Electronic contribution:      3.605614034       1.270398493      -2.205222352
Nuclear contribution   :     -4.617339356      -1.626958282       2.823465895
                        -----------------------------------------
Total Dipole Moment    :     -1.011725322      -0.356559790       0.618243543
                        -----------------------------------------
Magnitude (a.u.)       :      1.238122808
Magnitude (Debye)      :      3.147058078

VIBRATIONAL FREQUENCIES
-----------------------

Scaling factor for frequencies =  1.000000000  (already applied!)

     0:       0.00 cm**-1
     1:       0.00 cm**-1
     2:       0.00 cm**-1
     3:       0.00 cm**-1
     4:       0.00 cm**-1
     5:       0.00 cm**-1
     6:    -225.09 cm**-1  ***imaginary mode***
     7:     270.89 cm**-1
     8:     612.80 cm**-1
     9:     846.45 cm**-1
    10:     899.93 cm**-1
    11:    1079.87 cm**-1
    12:    1115.13 cm**-1
    13:    1167.76 cm**-1
    14:    1254.58 cm**-1
    15:    1293.16 cm**-1
    16:    1410.70 cm**-1
    17:    1419.14 cm**-1
    18:    1506.66 cm**-1
    19:    1521.23 cm**-1
    20:    3014.10 cm**-1
    21:    3021.45 cm**-1
    22:    3059.82 cm**-1
    23:    3087.21 cm**-1

IR SPECTRUM
-----------

 Mode   freq       eps      Int      T**2         TX        TY        TZ
       cm**-1   L/(mol*cm) km/mol    a.u.
----------------------------------------------------------------------------
  7:    270.89   0.000061    0.31  0.000071  ( 0.006979  0.002704 -0.003846)
  8:    612.80   0.005784   29.23  0.002945  ( 0.017933  0.025520  0.044413)
  9:    846.45   0.000072    0.36  0.000026  (-0.002166  0.004404 -0.001534)
 10:    899.93   0.004875   24.64  0.001690  ( 0.033621  0.011912 -0.020451)
 11:   1079.87   0.003561   17.99  0.001029  (-0.010601 -0.015116 -0.026232)
 12:   1115.13   0.026292  132.87  0.007358  (-0.070055 -0.024692  0.042900)
 13:   1167.76   0.000000    0.00  0.000000  (-0.000043 -0.000066 -0.000020)
 14:   1254.58   0.000000    0.00  0.000000  ( 0.000047  0.000025  0.000010)
 15:   1293.16   0.000266    1.34  0.000064  (-0.003837  0.006655 -0.002280)
 16:   1410.70   0.001570    7.94  0.000347  (-0.006147 -0.008825 -0.015222)
 17:   1419.14   0.000289    1.46  0.000064  (-0.006521 -0.002391  0.003921)
 18:   1506.66   0.000352    1.78  0.000073  (-0.002768 -0.004001 -0.007018)
 19:   1521.23   0.000219    1.11  0.000045  ( 0.005526  0.001933 -0.003255)
 20:   3014.10   0.003400   17.18  0.000352  (-0.005240 -0.008663 -0.015796)
 21:   3021.45   0.010272   51.91  0.001061  (-0.026752 -0.009800  0.015786)
 22:   3059.82   0.000003    0.02  0.000000  ( 0.000030 -0.000399  0.000425)
 23:   3087.21   0.008627   43.60  0.000872  (-0.014186  0.024467 -0.008496)

--------------------------
THERMOCHEMISTRY AT 298.15K
--------------------------

Temperature         ...   298.15 K
Pressure            ...     1.00 atm
Total Mass          ...    66.05 AMU
Quasi RRHO          ...     True
Cut-Off Frequency   ...     1.00 cm^-1

Throughout the following assumptions are being made:
  (1) The electronic state is orbitally nondegenerate
  (2) There are no thermally accessible electronically excited states
  (3) Hindered rotations indicated by low frequency modes are not
      treated as such but are treated as vibrations and this may
      cause some error
  (4) All equations used are the standard statistical mechanics
      equations for an ideal gas
  (5) All vibrations are strictly harmonic

freq.     270.89  E(vib)   ...       0.29
freq.     612.80  E(vib)   ...       0.10
freq.     846.45  E(vib)   ...       0.04
freq.     899.93  E(vib)   ...       0.03
freq.    1079.87  E(vib)   ...       0.02
freq.    1115.13  E(vib)   ...       0.01
freq.    1167.76  E(vib)   ...       0.01
freq.    1254.58  E(vib)   ...       0.01
freq.    1293.16  E(vib)   ...       0.01
freq.    1410.70  E(vib)   ...       0.00
freq.    1419.14  E(vib)   ...       0.00
freq.    1506.66  E(vib)   ...       0.00
freq.    1521.23  E(vib)   ...       0.00
freq.    3014.10  E(vib)   ...       0.00
freq.    3021.45  E(vib)   ...       0.00
freq.    3059.82  E(vib)   ...       0.00
freq.    3087.21  E(vib)   ...       0.00

------------
INNER ENERGY
------------

The inner energy is: U= E(el) + E(ZPE) + E(vib) + E(rot) + E(trans)
    E(el)   - is the total energy from the electronic structure calculation
              = E(kin-el) + E(nuc-el) + E(el-el) + E(nuc-nuc)
    E(ZPE)  - the the zero temperature vibrational energy from the frequency calculation
    E(vib)  - the the finite temperature correction to E(ZPE) due to population
              of excited vibrational states
    E(rot)  - is the rotational thermal energy
    E(trans)- is the translational thermal energy

Summary of contributions to the inner energy U:
Electronic energy                ...   -278.25552284 Eh
Zero point energy                ...      0.06055571 Eh      38.00 kcal/mol
Thermal vibrational correction   ...      0.00084875 Eh       0.53 kcal/mol
Thermal rotational correction    ...      0.00141627 Eh       0.89 kcal/mol
Thermal translational correction ...      0.00141627 Eh       0.89 kcal/mol
-----------------------------------------------------------------------
Total thermal energy                   -278.19128584 Eh

Summary of corrections to the electronic energy:
(perhaps to be used in another calculation)
Total thermal correction                  0.00368129 Eh       2.31 kcal/mol
Non-thermal (ZPE) correction              0.06055571 Eh      38.00 kcal/mol
-----------------------------------------------------------------------
Total correction                          0.06423700 Eh      40.31 kcal/mol

--------
ENTHALPY
--------

The enthalpy is H = U + kB*T
                kB is Boltzmann's constant
Total thermal energy              ...   -278.19128584 Eh
Thermal Enthalpy correction       ...      0.00094421 Eh       0.59 kcal/mol
-----------------------------------------------------------------------
Total Enthalpy                    ...   -278.19034163 Eh

Note: Only C1 symmetry has been detected, increase convergence thresholds
      if your molecule has a higher symmetry. Symmetry factor of 1.0 is
      used for the rotational entropy correction.

Note: Rotational entropy computed according to Herzberg
Infrared and Raman Spectra, Chapter V,1, Van Nostrand Reinhold, 1945
Point Group:  C1, Symmetry Number:   1
Rotational constants in cm-1:     0.491177     0.200762     0.150706

Vibrational entropy computed according to the QRRHO of S. Grimme
Chem.Eur.J. 2012 18 9955 using a reference frequency of 100.0 cm-1

-------
ENTROPY
-------

The entropy contributions are T*S = T*(S(el)+S(vib)+S(rot)+S(trans))
     S(el)   - electronic entropy
     S(vib)  - vibrational entropy
     S(rot)  - rotational entropy
     S(trans)- translational entropy
The entropies will be listed as multiplied by the temperature to get
units of energy

Electronic entropy                ...      0.00000000 Eh      0.00 kcal/mol
Vibrational entropy               ...      0.00124839 Eh      0.78 kcal/mol
Rotational entropy                ...      0.01149784 Eh      7.21 kcal/mol
Translational entropy             ...      0.01828383 Eh     11.47 kcal/mol
-----------------------------------------------------------------------
Final entropy term                ...      0.03103007 Eh     19.47 kcal/mol

In case the symmetry of your molecule has not been determined correctly
or in case you have a reason to use a different symmetry number we print
out the resulting rotational entropy values for sn=1,12:

 non-linear molecules -----------------------------------
|  sn= 1 | S(rot)=       0.01149784 Eh      7.21 kcal/mol|
|  sn= 2 | S(rot)=       0.01084339 Eh      6.80 kcal/mol|
|  sn= 3 | S(rot)=       0.01046056 Eh      6.56 kcal/mol|
|  sn= 4 | S(rot)=       0.01018893 Eh      6.39 kcal/mol|
|  sn= 5 | S(rot)=       0.00997824 Eh      6.26 kcal/mol|
|  sn= 6 | S(rot)=       0.00980610 Eh      6.15 kcal/mol|
|  sn= 7 | S(rot)=       0.00966055 Eh      6.06 kcal/mol|
|  sn= 8 | S(rot)=       0.00953448 Eh      5.98 kcal/mol|
|  sn= 9 | S(rot)=       0.00942327 Eh      5.91 kcal/mol|
|  sn=10 | S(rot)=       0.00932379 Eh      5.85 kcal/mol|
|  sn=11 | S(rot)=       0.00923380 Eh      5.79 kcal/mol|
|  sn=12 | S(rot)=       0.00915164 Eh      5.74 kcal/mol|
 linear molecules ---------------------------------------
|  Dinfh | S(rot)=       0.00711260 Eh      4.46 kcal/mol|
|  Cinfv | S(rot)=       0.00776705 Eh      4.87 kcal/mol|
 --------------------------------------------------------

-------------------
GIBBS FREE ENERGY
-------------------

The Gibbs free energy is G = H - T*S

Total enthalpy                    ...   -278.19034163 Eh
Total entropy correction          ...     -0.03103007 Eh    -19.47 kcal/mol
-----------------------------------------------------------------------
Final Gibbs free energy         ...   -278.22137169 Eh

For completeness - the Gibbs free energy minus the electronic energy
G-E(el)                           ...      0.03415114 Eh     21.43 kcal/mol

                             ****ORCA TERMINATED NORMALLY****
TOTAL RUN TIME: 0 days 0 hours 0 minutes 44 seconds 530 msec
