                         Program Version 6.0.1  -  RELEASE   -
|  1> ! r2scan-3c optTS freq xyzfile
|  2> %pal nprocs 4 end
|  3> %maxcore 500
|  4> %geom
|  5>     Calc_Hess true
|  6> end
|  7> * xyzfile -1 1 bond_sn2.xyz
|  8>
|  9>
| 10>                          ****END OF INPUT****
 Total Charge           Charge          ....   -1
 Multiplicity           Mult            ....    1
 Number of Electrons    NEL             ....   36
 Basis Dimension        Dim             ....   85

ORBITAL ENERGIES
----------------

  NO   OCC          E(Eh)            E(eV)
   0   2.0000    -100.944081     -2746.8281
   1   2.0000     -24.139135      -656.8593
   2   2.0000      -9.878003      -268.7941
   3   2.0000      -9.103674      -247.7236
   4   2.0000      -6.846007      -186.2893
   5   2.0000      -6.841320      -186.1618
   6   2.0000      -6.841319      -186.1618
   7   2.0000      -0.791676       -21.5426
   8   2.0000      -0.561540       -15.2803
   9   2.0000      -0.417116       -11.3503
  10   2.0000      -0.221563        -6.0290
  11   2.0000      -0.221562        -6.0290
  12   2.0000      -0.154922        -4.2156
  13   2.0000      -0.060862        -1.6561
  14   2.0000      -0.060860        -1.6561
  15   2.0000      -0.030235        -0.8227
  16   2.0000      -0.030233        -0.8227
  17   2.0000      -0.018028        -0.4906
  18   0.0000       0.247477         6.7342
  19   0.0000       0.293367         7.9829
  20   0.0000       0.361555         9.8384
  21   0.0000       0.361569         9.8388
  22   0.0000       0.392895        10.6912

MULLIKEN ATOMIC CHARGES
-----------------------
   0 C :   -0.177135
   1 H :    0.145209
   2 H :    0.145203
   3 H :    0.145185
   4 F :   -0.637533
   5 Cl:   -0.620929
Sum of atomic charges:   -1.0000000

LOEWDIN ATOMIC CHARGES
----------------------
   0 C :   -0.276060
   1 H :    0.147995
   2 H :    0.147994
   3 H :    0.147990
   4 F :   -0.718285
   5 Cl:   -0.449635

  Mayer bond orders larger than 0.100000
B(  0-C ,  1-H ) :   0.9825 B(  0-C ,  2-H ) :   0.9825 B(  0-C ,  3-H ) :   0.9825
B(  0-C ,  4-F ) :   0.3907 B(  0-C ,  5-Cl) :   0.5701

Dispersion correction           -0.000852805
FINAL SINGLE POINT ENERGY      -599.912022780759
Dispersion correction             ... done (  0.0 sec)

VIBRATIONAL FREQUENCIES
-----------------------

Scaling factor for frequencies =  1.000000000  (already applied!)

     0:       0.00 cm**-1
     1:       0.00 cm**-1
     2:       0.00 cm**-1
     3:       0.00 cm**-1
     4:       0.00 cm**-1
     5:       0.00 cm**-1
     6:    -329.02 cm**-1  ***imaginary mode***
     7:     258.99 cm**-1
     8:     259.62 cm**-1
     9:     447.57 cm**-1
    10:    1285.20 cm**-1
    11:    1285.58 cm**-1
    12:    1341.19 cm**-1
    13:    1341.51 cm**-1
    14:    1363.10 cm**-1
    15:    3153.02 cm**-1
    16:    3354.25 cm**-1
    17:    3354.61 cm**-1

IR SPECTRUM
-----------

 Mode   freq       eps      Int      T**2         TX        TY        TZ
       cm**-1   L/(mol*cm) km/mol    a.u.
----------------------------------------------------------------------------
  7:    258.99   0.002809   14.20  0.003385  ( 0.033123  0.037908 -0.029164)
  8:    259.62   0.002811   14.20  0.003379  (-0.045778  0.035305 -0.006048)
  9:    447.57   0.000084    0.42  0.000058  ( 0.001905  0.003344  0.006608)
 10:   1285.20   0.000248    1.25  0.000060  ( 0.004388 -0.006125  0.001841)
 11:   1285.58   0.000247    1.25  0.000060  (-0.006045 -0.003383  0.003444)
 12:   1341.19   0.000390    1.97  0.000091  ( 0.007300 -0.006031  0.001051)
 13:   1341.51   0.000392    1.98  0.000091  ( 0.005646  0.006078 -0.004727)
 14:   1363.10   0.000381    1.92  0.000087  ( 0.002228  0.004159  0.008058)
 15:   3153.02   0.000476    2.41  0.000047  ( 0.001707  0.003017  0.005924)
 16:   3354.25   0.001585    8.01  0.000147  (-0.005105  0.010397 -0.003645)
 17:   3354.61   0.001586    8.01  0.000148  (-0.010554 -0.003489  0.004895)

--------------------------
THERMOCHEMISTRY AT 298.15K
--------------------------

Temperature         ...   298.15 K
Pressure            ...     1.00 atm
Total Mass          ...    69.49 AMU
Quasi RRHO          ...     True
Cut-Off Frequency   ...     1.00 cm^-1

Throughout the following assumptions are being made:
  (1) The electronic state is orbitally nondegenerate
  (2) There are no thermally accessible electronically excited states
  (3) Hindered rotations indicated by low frequency modes are not
      treated as such but are treated as vibrations and this may
      cause some error
  (4) All equations used are the standard statistical mechanics
      equations for an ideal gas
  (5) All vibrations are strictly harmonic

freq.     258.99  E(vib)   ...       0.30
freq.     259.62  E(vib)   ...       0.30
freq.     447.57  E(vib)   ...       0.17
freq.    1285.20  E(vib)   ...       0.01
freq.    1285.58  E(vib)   ...       0.01
freq.    1341.19  E(vib)   ...       0.01
freq.    1341.51  E(vib)   ...       0.01
freq.    1363.10  E(vib)   ...       0.01
freq.    3153.02  E(vib)   ...       0.00
freq.    3354.25  E(vib)   ...       0.00
freq.    3354.61  E(vib)   ...       0.00

------------
INNER ENERGY
------------

The inner energy is: U= E(el) + E(ZPE) + E(vib) + E(rot) + E(trans)
    E(el)   - is the total energy from the electronic structure calculation
              = E(kin-el) + E(nuc-el) + E(el-el) + E(nuc-nuc)
    E(ZPE)  - the the zero temperature vibrational energy from the frequency calculation
    E(vib)  - the the finite temperature correction to E(ZPE) due to population
              of excited vibrational states
    E(rot)  - is the rotational thermal energy
    E(trans)- is the translational thermal energy

Summary of contributions to the inner energy U:
Electronic energy                ...   -599.91202278 Eh
Zero point energy                ...      0.03974182 Eh      24.94 kcal/mol
Thermal vibrational correction   ...      0.00126437 Eh       0.79 kcal/mol
Thermal rotational correction    ...      0.00141627 Eh       0.89 kcal/mol
Thermal translational correction ...      0.00141627 Eh       0.89 kcal/mol
-----------------------------------------------------------------------
Total thermal energy                   -599.86818405 Eh

Summary of corrections to the electronic energy:
(perhaps to be used in another calculation)
Total thermal correction                  0.00409691 Eh       2.57 kcal/mol
Non-thermal (ZPE) correction              0.03974182 Eh      24.94 kcal/mol
-----------------------------------------------------------------------
Total correction                          0.04383873 Eh      27.51 kcal/mol

--------
ENTHALPY
--------

The enthalpy is H = U + kB*T
                kB is Boltzmann's constant
Total thermal energy              ...   -599.86818405 Eh
Thermal Enthalpy correction       ...      0.00094421 Eh       0.59 kcal/mol
-----------------------------------------------------------------------
Total Enthalpy                    ...   -599.86723984 Eh

Note: Rotational entropy computed according to Herzberg
Infrared and Raman Spectra, Chapter V,1, Van Nostrand Reinhold, 1945
Point Group:  C3v, Symmetry Number:   3
Rotational constants in cm-1:     4.869087     0.097098     0.097098

Vibrational entropy computed according to the QRRHO of S. Grimme
Chem.Eur.J. 2012 18 9955 using a reference frequency of 100.0 cm-1

-------
ENTROPY
-------

The entropy contributions are T*S = T*(S(el)+S(vib)+S(rot)+S(trans))
     S(el)   - electronic entropy
     S(vib)  - vibrational entropy
     S(rot)  - rotational entropy
     S(trans)- translational entropy
The entropies will be listed as multiplied by the temperature to get
units of energy

Electronic entropy                ...      0.00000000 Eh      0.00 kcal/mol
Vibrational entropy               ...      0.00203026 Eh      1.27 kcal/mol
Rotational entropy                ...      0.00992811 Eh      6.23 kcal/mol
Translational entropy             ...      0.01835566 Eh     11.52 kcal/mol
-----------------------------------------------------------------------
Final entropy term                ...      0.03031402 Eh     19.02 kcal/mol

In case the symmetry of your molecule has not been determined correctly
or in case you have a reason to use a different symmetry number we print
out the resulting rotational entropy values for sn=1,12:

 non-linear molecules -----------------------------------
|  sn= 1 | S(rot)=       0.01096539 Eh      6.88 kcal/mol|
|  sn= 2 | S(rot)=       0.01031094 Eh      6.47 kcal/mol|
|  sn= 3 | S(rot)=       0.00992811 Eh      6.23 kcal/mol|
|  sn= 4 | S(rot)=       0.00965648 Eh      6.06 kcal/mol|
|  sn= 5 | S(rot)=       0.00944579 Eh      5.93 kcal/mol|
|  sn= 6 | S(rot)=       0.00927365 Eh      5.82 kcal/mol|
|  sn= 7 | S(rot)=       0.00912810 Eh      5.73 kcal/mol|
|  sn= 8 | S(rot)=       0.00900203 Eh      5.65 kcal/mol|
|  sn= 9 | S(rot)=       0.00889082 Eh      5.58 kcal/mol|
|  sn=10 | S(rot)=       0.00879134 Eh      5.52 kcal/mol|
|  sn=11 | S(rot)=       0.00870135 Eh      5.46 kcal/mol|
|  sn=12 | S(rot)=       0.00861919 Eh      5.41 kcal/mol|
 linear molecules ---------------------------------------
|  Dinfh | S(rot)=       0.00752767 Eh      4.72 kcal/mol|
|  Cinfv | S(rot)=       0.00818212 Eh      5.13 kcal/mol|
 --------------------------------------------------------

-------------------
GIBBS FREE ENERGY
-------------------

The Gibbs free energy is G = H - T*S

Total enthalpy                    ...   -599.86723984 Eh
Total entropy correction          ...     -0.03031402 Eh    -19.02 kcal/mol
-----------------------------------------------------------------------
Final Gibbs free energy         ...   -599.89755386 Eh

For completeness - the Gibbs free energy minus the electronic energy
G-E(el)                           ...      0.01446892 Eh      9.08 kcal/mol

Dispersion correction           -0.000849720
FINAL SINGLE POINT ENERGY      -599.921262076688
Dispersion correction             ... done (  0.0 sec)
Dispersion correction           -0.000852941
FINAL SINGLE POINT ENERGY      -599.923478938080
Dispersion correction             ... done (  0.0 sec)
FINAL SINGLE POINT ENERGY      -599.919640297328
FINAL SINGLE POINT ENERGY      -599.912255882850
FINAL SINGLE POINT ENERGY      -599.906118375163
FINAL SINGLE POINT ENERGY      -599.901408288027
FINAL SINGLE POINT ENERGY      -599.897614020236
FINAL SINGLE POINT ENERGY      -599.893603589194
FINAL SINGLE POINT ENERGY      -599.889331019774
FINAL SINGLE POINT ENERGY      -599.915853377998
FINAL SINGLE POINT ENERGY      -599.913351710346
FINAL SINGLE POINT ENERGY      -599.911032676505
FINAL SINGLE POINT ENERGY      -599.908328509341
FINAL SINGLE POINT ENERGY      -599.906270201051
FINAL SINGLE POINT ENERGY      -599.904018434208
FINAL SINGLE POINT ENERGY      -599.902094134353
Dispersion correction           -0.000837171
FINAL SINGLE POINT ENERGY      -599.899922053198
Dispersion correction             ... done (  0.0 sec)
Dispersion correction           -0.000841096
FINAL SINGLE POINT ENERGY      -599.897910120718
Dispersion correction             ... done (  0.0 sec)

CARTESIAN COORDINATES (ANGSTROEM)
---------------------------------
  C     -1.456951   -1.608933   -0.419236
  H     -1.297744   -2.353086    0.416763
  H     -2.480222   -1.165420   -0.382666
  H     -0.625054   -1.074298    0.586403
  F     -0.250516   -0.698949    1.513048
  Cl    -1.921226   -2.637990   -1.991001

Dispersion correction           -0.000843436
FINAL SINGLE POINT ENERGY      -599.894924073522
Dispersion correction             ... done (  0.0 sec)
                             ****ORCA TERMINATED NORMALLY****
TOTAL RUN TIME: 0 days 0 hours 4 minutes 19 seconds 488 msec
