 Gaussian 16, Revision C.01,
 Gaussian 16:  ES64L-G16RevC.01  3-Jul-2019

 ----------------------------------------------------------------------
 #P RM062X/gen opt=(TS,CalcFC,NoEigentest) freq scrf=(smd,solvent=Dichl
 oromethane)
 ----------------------------------------------------------------------

 --------------------------------
 spiro-TS_ro-RR_S ; M062X/def2SVP
 --------------------------------
 Symbolic Z-matrix:
 Charge =  0 Multiplicity = 1

 SCF Done:  E(RM062X) =  -1315.78456299     A.U. after   14 cycles
 SCF Done:  E(RM062X) =  -1315.78461149     A.U. after   11 cycles
 SCF Done:  E(RM062X) =  -1315.78461197     A.U. after    8 cycles
 SCF Done:  E(RM062X) =  -1315.78461218     A.U. after    6 cycles
 Optimization completed on the basis of negligible forces.
    -- Stationary point found.
 Normal termination of Gaussian 16 at Tue Sep 26 16:02:32 2023.

 ------------------------------------------------------------------
 #P Geom=AllCheck Guess=TCheck SCRF=Check GenChk RM062X/ChkBas Freq
 ------------------------------------------------------------------

 Structure from the checkpoint file:  "spiro-TS_ro-RR_S.chk"
 --------------------------------
 spiro-TS_ro-RR_S ; M062X/def2SVP
 --------------------------------
 Charge =  0 Multiplicity = 1

                         Standard orientation:
 ---------------------------------------------------------------------
 Center     Atomic      Atomic             Coordinates (Angstroms)
 Number     Number       Type             X           Y           Z
 ---------------------------------------------------------------------
      1          8           0        1.917597   -0.592881    2.126722
      2          6           0        1.611285   -0.591019    0.957332
      3          7           0        2.457921   -0.558156   -0.131544
      4          6           0        3.866111   -0.536342   -0.160177
      5          6           0        4.527669   -0.335396   -1.381279
      6          6           0        5.919260   -0.307457   -1.420936
      7          6           0        6.670263   -0.476309   -0.257446
      8          6           0        6.007345   -0.677976    0.952561
      9          6           0        4.615252   -0.711606    1.014173
     10          7           0        1.759327   -0.524764   -1.336625
     11          6           0        0.502800   -0.522382   -1.100415
     12          6           0       -0.488380   -0.532298   -2.212048
     13          6           0        0.174820   -0.636970    0.387871
     14          8           0       -0.474678   -1.796111    0.711314
     15          6           0       -1.950065   -0.369426    1.382567
     16          7           0       -2.749261   -0.941187    0.209190
     17          1           0       -2.020604   -1.256532   -0.447412
     18          6           0       -3.464179   -2.180305    0.640355
     19          6           0       -4.207526   -2.764354   -0.545210
     20          8           0       -5.108657   -1.830938   -1.088810
     21          6           0       -4.441421   -0.687088   -1.551154
     22          6           0       -3.696281    0.019911   -0.429550
     23          8           0       -2.480381   -0.425055    2.450225
     24          6           0       -0.696679    0.449520    1.065878
     25          6           0       -0.896021    1.846841    0.519491
     26          6           0       -2.026167    2.596212    0.877619
     27          6           0       -2.191627    3.902206    0.420094
     28          6           0       -1.221427    4.488408   -0.394155
     29          6           0       -0.082949    3.760652   -0.736588
     30          6           0        0.080988    2.451226   -0.281127
     31          1           0        3.943323   -0.204435   -2.289598
     32          1           0        6.419661   -0.149897   -2.378287
     33          1           0        7.760311   -0.452350   -0.293960
     34          1           0        6.578382   -0.815243    1.872773
     35          1           0        4.108149   -0.868340    1.962215
     36          1           0       -1.229018    0.273276   -2.082359
     37          1           0       -1.015727   -1.500488   -2.236795
     38          1           0        0.020150   -0.399181   -3.174895
     39          1           0       -4.154132   -1.889780    1.440763
     40          1           0       -2.698301   -2.862611    1.027794
     41          1           0       -4.783831   -3.636713   -0.212627
     42          1           0       -3.488259   -3.100352   -1.316847
     43          1           0       -5.188781   -0.000963   -1.969302
     44          1           0       -3.728133   -0.953588   -2.354941
     45          1           0       -4.387317    0.360943    0.353479
     46          1           0       -3.126291    0.872358   -0.817841
     47          1           0       -0.258189    0.542884    2.074280
     48          1           0       -2.786867    2.155131    1.526756
     49          1           0       -3.080884    4.466170    0.707250
     50          1           0       -1.348977    5.511189   -0.752479
     51          1           0        0.690111    4.212790   -1.360315
     52          1           0        0.989832    1.908061   -0.547535
 ---------------------------------------------------------------------

 SCF Done:  E(RM062X) =  -1315.78461218     A.U. after    1 cycles

 The electronic state is 1-A.
 Alpha  occ. eigenvalues --  -19.64601 -19.64542 -19.61685 -19.55056 -14.86744
 Alpha  occ. eigenvalues --  -14.82635 -14.79472 -10.70195 -10.65463 -10.61345
 Alpha  occ. eigenvalues --  -10.61068 -10.60990 -10.60385 -10.60227 -10.60170
 Alpha  occ. eigenvalues --  -10.59472 -10.57646 -10.57618 -10.56199 -10.56143
 Alpha  occ. eigenvalues --  -10.56073 -10.56001 -10.55981 -10.55813 -10.55524
 Alpha  occ. eigenvalues --  -10.55449 -10.55273 -10.55127 -10.54942  -1.19917
 Alpha  occ. eigenvalues --   -1.17648  -1.17091  -1.12395  -1.09292  -1.05000
 Alpha  occ. eigenvalues --   -0.97420  -0.96045  -0.92726  -0.89102  -0.88170
 Alpha  occ. eigenvalues --   -0.84269  -0.83696  -0.83370  -0.82613  -0.81632
 Alpha  occ. eigenvalues --   -0.79879  -0.77117  -0.76397  -0.70554  -0.70405
 Alpha  occ. eigenvalues --   -0.68977  -0.68532  -0.68019  -0.66642  -0.64339
 Alpha  occ. eigenvalues --   -0.62766  -0.61273  -0.60337  -0.59734  -0.57666
 Alpha  occ. eigenvalues --   -0.56998  -0.56579  -0.55714  -0.55609  -0.55435
 Alpha  occ. eigenvalues --   -0.54559  -0.53330  -0.53029  -0.52377  -0.51188
 Alpha  occ. eigenvalues --   -0.50824  -0.50485  -0.50159  -0.49548  -0.48770
 Alpha  occ. eigenvalues --   -0.48471  -0.48101  -0.47857  -0.47234  -0.46249
 Alpha  occ. eigenvalues --   -0.46012  -0.45414  -0.45265  -0.44461  -0.43656
 Alpha  occ. eigenvalues --   -0.43389  -0.42500  -0.42291  -0.41962  -0.40924
 Alpha  occ. eigenvalues --   -0.40243  -0.40150  -0.39630  -0.38366  -0.35606
 Alpha  occ. eigenvalues --   -0.34961  -0.34331  -0.33854  -0.31357  -0.30872
 Alpha  occ. eigenvalues --   -0.30785  -0.27824  -0.27444  -0.26181
 Alpha virt. eigenvalues --    0.00106   0.01425   0.01711   0.02414   0.02866
 Alpha virt. eigenvalues --    0.04729   0.08178   0.09827   0.10813   0.11493
 Alpha virt. eigenvalues --    0.11831   0.12033   0.13046   0.13350   0.14212

 Mulliken charges:
               1
     1  O   -0.270771
     2  C    0.305766
     3  N   -0.264487
     4  C    0.155874
     5  C   -0.064695
     6  C   -0.039928
     7  C   -0.029968
     8  C   -0.042962
     9  C   -0.076954
    10  N   -0.070173
    11  C   -0.114859
    12  C    0.041490
    13  C   -0.044957
    14  O   -0.575121
    15  C    0.093637
    16  N   -0.259824
    17  H    0.191710
    18  C    0.027609
    19  C    0.180903
    20  O   -0.431174
    21  C    0.201699
    22  C   -0.016842
    23  O   -0.212082
    24  C    0.125389
    25  C   -0.009181
    26  C   -0.054068
    27  C   -0.032950
    28  C   -0.031803
    29  C   -0.030702
    30  C   -0.054777
    31  H    0.030872
    32  H    0.044084
    33  H    0.039973
    34  H    0.044465
    35  H    0.037484
    36  H    0.064704
    37  H    0.097058
    38  H    0.064024
    39  H    0.091750
    40  H    0.105931
    41  H    0.080627
    42  H    0.055952
    43  H    0.082637
    44  H    0.046904
    45  H    0.100206
    46  H    0.128411
    47  H    0.079565
    48  H    0.040406
    49  H    0.045130
    50  H    0.046256
    51  H    0.045749
    52  H    0.032011
 Sum of Mulliken charges =   0.00000

 Dipole moment (field-independent basis, Debye):
    X=             -8.9965    Y=              2.8593    Z=             -6.8708  Tot=             11.6756
 Quadrupole moment (field-independent basis, Debye-Ang):
   XX=           -148.9934   YY=           -162.2723   ZZ=           -176.9079
   XY=              3.9071   XZ=              2.7264   YZ=              0.9235

  Exact polarizability:     431.857     -10.465     283.503     -26.224     -26.174     309.196
 Approx polarizability:     371.652      -8.565     270.548     -28.861     -25.168     315.527

 ******    1 imaginary frequencies (negative Signs) ******

                      1                      2                      3
                      A                      A                      A
 Frequencies --   -180.2882                18.6614                22.1088
 Red. masses --      9.2424                 4.6809                 4.5402
 Frc consts  --      0.1770                 0.0010                 0.0013
 IR Inten    --    189.1331                 0.3544                 0.2208

                      4                      5                      6
                      A                      A                      A
 Frequencies --     35.3566                51.1057                63.3964
 Red. masses --      4.1558                 6.4213                 5.2119
 Frc consts  --      0.0031                 0.0099                 0.0123
 IR Inten    --      0.4094                 1.5150                 0.9087

                      7                      8                      9
                      A                      A                      A
 Frequencies --     77.1447                92.6194                96.6236
 Red. masses --      3.4488                 5.3193                 6.4999
 Frc consts  --      0.0121                 0.0269                 0.0358
 IR Inten    --      5.9723                 3.1000                 4.5421

                     10                     11                     12
                      A                      A                      A
 Frequencies --    103.7991               119.8140               158.3538
 Red. masses --      6.2306                 4.2203                 5.3806
 Frc consts  --      0.0396                 0.0357                 0.0795
 IR Inten    --      1.1084                 1.6411                18.6931

                     13                     14                     15
                      A                      A                      A
 Frequencies --    184.2874               187.9985               196.7749
 Red. masses --      4.4395                 4.7109                 5.4586
 Frc consts  --      0.0888                 0.0981                 0.1245
 IR Inten    --      4.5836                 1.0326                13.4416

                     16                     17                     18
                      A                      A                      A
 Frequencies --    226.2537               244.6353               247.7696
 Red. masses --      4.7015                 3.9427                 4.7085
 Frc consts  --      0.1418                 0.1390                 0.1703
 IR Inten    --     26.7977                10.9465                16.0746

                     19                     20                     21
                      A                      A                      A
 Frequencies --    266.8974               304.7005               311.6806
 Red. masses --      2.1421                 3.5089                 2.1058
 Frc consts  --      0.0899                 0.1919                 0.1205
 IR Inten    --     15.7276                59.1873                 3.2836

                     22                     23                     24
                      A                      A                      A
 Frequencies --    318.4459               332.8018               337.9927
 Red. masses --      2.6725                 2.4961                 8.2942
 Frc consts  --      0.1597                 0.1629                 0.5583
 IR Inten    --      3.1723                31.2929                 9.7451

                     25                     26                     27
                      A                      A                      A
 Frequencies --    350.9684               371.0903               387.1608
 Red. masses --      6.5614                 5.7019                 4.1790
 Frc consts  --      0.4762                 0.4626                 0.3691
 IR Inten    --      6.4180                11.4276                14.7985

                     28                     29                     30
                      A                      A                      A
 Frequencies --    404.8621               421.5216               422.6692
 Red. masses --      3.1560                 2.8934                 2.9659
 Frc consts  --      0.3048                 0.3029                 0.3122
 IR Inten    --     31.1082                 0.1565                 0.3490

                     31                     32                     33
                      A                      A                      A
 Frequencies --    443.8234               460.0443               485.2949
 Red. masses --      3.3809                 4.0437                 3.6402
 Frc consts  --      0.3924                 0.5042                 0.5051
 IR Inten    --     31.3487                 1.4366                42.2034

                     34                     35                     36
                      A                      A                      A
 Frequencies --    502.6049               536.4652               558.7954
 Red. masses --      2.6954                 3.0435                 5.7036
 Frc consts  --      0.4012                 0.5161                 1.0493
 IR Inten    --      9.3565                14.0305                37.1354

                     37                     38                     39
                      A                      A                      A
 Frequencies --    589.5452               595.0113               624.8934
 Red. masses --      3.0720                 2.6629                 6.3271
 Frc consts  --      0.6291                 0.5555                 1.4557
 IR Inten    --      8.1851                16.0838                 0.6043

                     40                     41                     42
                      A                      A                      A
 Frequencies --    625.6060               638.7079               658.3292
 Red. masses --      6.2780                 5.2351                 6.1225
 Frc consts  --      1.4477                 1.2583                 1.5634
 IR Inten    --      0.9986                23.9580                 3.1724

                     43                     44                     45
                      A                      A                      A
 Frequencies --    673.1222               686.7441               724.2870
 Red. masses --      5.4598                 5.5086                 1.7916
 Frc consts  --      1.4575                 1.5307                 0.5537
 IR Inten    --     26.5526                26.5612                40.0784

                     46                     47                     48
                      A                      A                      A
 Frequencies --    729.0327               745.0344               766.1670
 Red. masses --      1.8223                 3.9291                 3.8798
 Frc consts  --      0.5706                 1.2850                 1.3419
 IR Inten    --     44.5773                43.2046                14.1489

                     49                     50                     51
                      A                      A                      A
 Frequencies --    789.2953               792.0570               800.8765
 Red. masses --      3.1126                 2.2272                 2.8894
 Frc consts  --      1.1425                 0.8232                 1.0919
 IR Inten    --      9.6737                38.5761                78.5980

                     52                     53                     54
                      A                      A                      A
 Frequencies --    828.1863               854.6704               856.9684
 Red. masses --      2.7677                 4.8657                 1.7303
 Frc consts  --      1.1185                 2.0941                 0.7487
 IR Inten    --     52.9359                25.6954                 1.9035

                     55                     56                     57
                      A                      A                      A
 Frequencies --    874.7244               876.3501               881.8306
 Red. masses --      1.2493                 3.3827                 1.2519
 Frc consts  --      0.5632                 1.5306                 0.5736
 IR Inten    --      0.0768                 8.9563                 0.9610

                     58                     59                     60
                      A                      A                      A
 Frequencies --    913.2579               928.6133               939.6548
 Red. masses --      3.3264                 2.4229                 2.0727
 Frc consts  --      1.6346                 1.2310                 1.0783
 IR Inten    --      8.5299                56.8190                33.7594

                     61                     62                     63
                      A                      A                      A
 Frequencies --    957.5491               961.9587              1002.9919
 Red. masses --      1.4718                 1.5866                 2.0267
 Frc consts  --      0.7951                 0.8650                 1.2012
 IR Inten    --     10.1167                 1.3434                 1.9887

                     64                     65                     66
                      A                      A                      A
 Frequencies --   1008.4216              1011.8467              1023.3507
 Red. masses --      4.5724                 4.9538                 1.4700
 Frc consts  --      2.7396                 2.9882                 0.9070
 IR Inten    --      3.6874                 1.1502                 7.1544

                     67                     68                     69
                      A                      A                      A
 Frequencies --   1025.5353              1026.6107              1030.2484
 Red. masses --      1.3647                 1.8633                 2.2140
 Frc consts  --      0.8456                 1.1570                 1.3846
 IR Inten    --      0.2690                55.7199                34.7754

                     70                     71                     72
                      A                      A                      A
 Frequencies --   1036.5248              1040.9619              1044.6896
 Red. masses --      1.8002                 1.9849                 1.3347
 Frc consts  --      1.1395                 1.2672                 0.8582
 IR Inten    --     18.7091                 6.5637                 0.9002

                     73                     74                     75
                      A                      A                      A
 Frequencies --   1049.9277              1063.5934              1064.1322
 Red. masses --      1.3487                 2.0911                 2.0149
 Frc consts  --      0.8760                 1.3938                 1.3443
 IR Inten    --      0.1417                18.8661                 9.7953

                     76                     77                     78
                      A                      A                      A
 Frequencies --   1077.4722              1100.9301              1103.0098
 Red. masses --      2.2063                 2.1513                 1.5619
 Frc consts  --      1.5091                 1.5363                 1.1196
 IR Inten    --     12.8700                50.3383                 1.5373

                     79                     80                     81
                      A                      A                      A
 Frequencies --   1111.1758              1133.6335              1145.1980
 Red. masses --      1.9115                 4.2332                 3.1812
 Frc consts  --      1.3906                 3.2053                 2.4581
 IR Inten    --      4.7638               142.5012                88.9931

                     82                     83                     84
                      A                      A                      A
 Frequencies --   1148.2408              1152.1965              1157.8414
 Red. masses --      1.0977                 1.0816                 3.2478
 Frc consts  --      0.8527                 0.8460                 2.5653
 IR Inten    --      2.4584                 1.3409               103.1373

                     85                     86                     87
                      A                      A                      A
 Frequencies --   1164.5936              1179.7002              1190.1602
 Red. masses --      3.1441                 1.1748                 1.1210
 Frc consts  --      2.5125                 0.9633                 0.9355
 IR Inten    --     29.3927                18.2925                 0.1932

                     88                     89                     90
                      A                      A                      A
 Frequencies --   1192.0292              1201.6548              1209.5619
 Red. masses --      1.6597                 5.8749                 3.1438
 Frc consts  --      1.3895                 4.9982                 2.7099
 IR Inten    --     51.4383               202.8226                81.8193

                     91                     92                     93
                      A                      A                      A
 Frequencies --   1225.1739              1245.7769              1270.7885
 Red. masses --      1.8169                 2.3059                 1.3528
 Frc consts  --      1.6068                 2.1085                 1.2872
 IR Inten    --     49.4384               106.4957               121.8770

                     94                     95                     96
                      A                      A                      A
 Frequencies --   1286.5880              1294.0157              1317.2522
 Red. masses --      1.4000                 1.8013                 1.9553
 Frc consts  --      1.3654                 1.7771                 1.9989
 IR Inten    --     47.2824                51.8830                 4.1283

                     97                     98                     99
                      A                      A                      A
 Frequencies --   1325.6687              1329.3917              1335.8950
 Red. masses --      1.4887                 1.8999                 1.2266
 Frc consts  --      1.5414                 1.9783                 1.2897
 IR Inten    --     13.0095                44.0454                18.1761

                    100                    101                    102
                      A                      A                      A
 Frequencies --   1336.8240              1341.1856              1350.1933
 Red. masses --      1.5817                 1.6636                 1.2932
 Frc consts  --      1.6654                 1.7631                 1.3890
 IR Inten    --     38.4235                 0.9165                 9.1304

                    103                    104                    105
                      A                      A                      A
 Frequencies --   1357.2638              1357.9313              1379.6709
 Red. masses --      3.2539                 4.9574                 2.0744
 Frc consts  --      3.5317                 5.3859                 2.3264
 IR Inten    --      1.4327                 0.0920               224.7127

                    106                    107                    108
                      A                      A                      A
 Frequencies --   1390.8967              1397.5061              1427.9442
 Red. masses --      1.4188                 1.4021                 1.3229
 Frc consts  --      1.6172                 1.6134                 1.5892
 IR Inten    --     14.2450                14.5815                61.2638

                    109                    110                    111
                      A                      A                      A
 Frequencies --   1435.4398              1444.9164              1448.3448
 Red. masses --      1.1576                 1.7294                 1.6493
 Frc consts  --      1.4054                 2.1273                 2.0384
 IR Inten    --     17.1680                84.6537                50.6614

                    112                    113                    114
                      A                      A                      A
 Frequencies --   1457.2745              1458.3195              1461.6956
 Red. masses --      1.1702                 1.0863                 1.1159
 Frc consts  --      1.4642                 1.3612                 1.4048
 IR Inten    --     37.3066                42.4416                50.8787

                    115                    116                    117
                      A                      A                      A
 Frequencies --   1470.3838              1479.6391              1486.4144
 Red. masses --      1.0852                 1.1415                 2.5972
 Frc consts  --      1.3824                 1.4724                 3.3809
 IR Inten    --     18.9612                 7.4398                 7.8141

                    118                    119                    120
                      A                      A                      A
 Frequencies --   1499.3801              1539.9763              1546.0460
 Red. masses --      2.8282                 2.6023                 3.0833
 Frc consts  --      3.7461                 3.6361                 4.3422
 IR Inten    --      3.7448                48.6422               462.3421

                    121                    122                    123
                      A                      A                      A
 Frequencies --   1670.2313              1672.0399              1692.0633
 Red. masses --      6.4979                 7.0011                 6.5528
 Frc consts  --     10.6802                11.5322                11.0538
 IR Inten    --      4.5149                 9.6791               162.3034

                    124                    125                    126
                      A                      A                      A
 Frequencies --   1694.7908              1767.1913              1869.7170
 Red. masses --      6.4878                10.8901                12.8314
 Frc consts  --     10.9794                20.0378                26.4287
 IR Inten    --     13.7718                34.2998               405.1141

                    127                    128                    129
                      A                      A                      A
 Frequencies --   1906.5009              3025.3020              3027.7483
 Red. masses --     11.1114                 1.0718                 1.0720
 Frc consts  --     23.7955                 5.7797                 5.7900
 IR Inten    --    532.9418                43.1333                51.6928

                    130                    131                    132
                      A                      A                      A
 Frequencies --   3051.4953              3067.0515              3119.2077
 Red. masses --      1.0391                 1.0835                 1.0624
 Frc consts  --      5.7005                 6.0050                 6.0899
 IR Inten    --     20.0059                 8.3121                 2.4780

                    133                    134                    135
                      A                      A                      A
 Frequencies --   3135.6749              3136.2301              3164.9754
 Red. masses --      1.0716                 1.0887                 1.0966
 Frc consts  --      6.2080                 6.3090                 6.4723
 IR Inten    --      4.4913                 4.0439                16.1240

                    136                    137                    138
                      A                      A                      A
 Frequencies --   3166.4323              3178.7828              3201.2552
 Red. masses --      1.0977                 1.1028                 1.1058
 Frc consts  --      6.4847                 6.5656                 6.6770
 IR Inten    --      9.2136                 4.4165                 1.5677

                    139                    140                    141
                      A                      A                      A
 Frequencies --   3201.9465              3214.2071              3214.4419
 Red. masses --      1.0950                 1.1124                 1.0879
 Frc consts  --      6.6145                 6.7711                 6.6227
 IR Inten    --      2.6465                 0.3512                 1.0985

                    142                    143                    144
                      A                      A                      A
 Frequencies --   3215.3973              3221.4533              3222.1917
 Red. masses --      1.0881                 1.0934                 1.0924
 Frc consts  --      6.6283                 6.6855                 6.6826
 IR Inten    --      0.2612                10.9655                 2.6725

                    145                    146                    147
                      A                      A                      A
 Frequencies --   3228.3758              3234.7446              3236.9363
 Red. masses --      1.0965                 1.0994                 1.1011
 Frc consts  --      6.7334                 6.7779                 6.7972
 IR Inten    --      7.8325                10.9979                 6.7831

                    148                    149                    150
                      A                      A                      A
 Frequencies --   3266.4751              3284.9014              3416.1634
 Red. masses --      1.0941                 1.0940                 1.0764
 Frc consts  --      6.8781                 6.9554                 7.4009
 IR Inten    --      0.5540                 8.2854               252.8682

 - Thermochemistry -
 -------------------
 Temperature   298.150 Kelvin.  Pressure   1.00000 Atm.
 Atom     1 has atomic number  8 and mass  15.99491

 Molecular mass:   393.16886 amu.
 Principal axes and moments of inertia in atomic units:
                           1         2         3
     Eigenvalues --  6351.42315********************
           X            0.99999   0.00335   0.00252
           Y           -0.00335   0.99999  -0.00028
           Z           -0.00252   0.00027   1.00000
 This molecule is an asymmetric top.
 Rotational symmetry number  1.
 Warning -- assumption of classical behavior for rotation
           may cause significant error
 Rotational temperatures (Kelvin)      0.01364     0.00512     0.00446
 Rotational constants (GHZ):           0.28415     0.10664     0.09301
    1 imaginary frequencies ignored.
 Zero-point vibrational energy    1121827.7 (Joules/Mol)
                                  268.12326 (Kcal/Mol)
 Warning -- explicit consideration of  37 degrees of freedom as
           vibrations may cause significant error
 Vibrational temperatures:     26.85    31.81    50.87    73.53    91.21
          (Kelvin)            110.99   133.26   139.02   149.34   172.39
                              227.84   265.15   270.49   283.12   325.53
                              351.98   356.49   384.01   438.40   448.44
                              458.17   478.83   486.30   504.97   533.92
                              557.04   582.51   606.48   608.13   638.56
                              661.90   698.23   723.14   771.85   803.98
                              848.22   856.09   899.08   900.11   918.96
                              947.19   968.47   988.07  1042.09  1048.92
                             1071.94  1102.34  1135.62  1139.59  1152.28
                             1191.58  1229.68  1232.99  1258.53  1260.87
                             1268.76  1313.97  1336.07  1351.95  1377.70
                             1384.04  1443.08  1450.89  1455.82  1472.37
                             1475.52  1477.06  1482.30  1491.33  1497.71
                             1503.08  1510.61  1530.27  1531.05  1550.24
                             1583.99  1586.99  1598.73  1631.05  1647.68
                             1652.06  1657.75  1665.88  1675.59  1697.33
                             1712.38  1715.06  1728.91  1740.29  1762.75
                             1792.40  1828.38  1851.11  1861.80  1895.23
                             1907.34  1912.70  1922.05  1923.39  1929.67
                             1942.63  1952.80  1953.76  1985.04  2001.19
                             2010.70  2054.49  2065.28  2078.91  2083.85
                             2096.69  2098.20  2103.05  2115.55  2128.87
                             2138.62  2157.27  2215.68  2224.42  2403.09
                             2405.69  2434.50  2438.43  2542.59  2690.11
                             2743.03  4352.73  4356.25  4390.42  4412.80
                             4487.84  4511.54  4512.34  4553.69  4555.79
                             4573.56  4605.89  4606.89  4624.53  4624.86
                             4626.24  4634.95  4636.02  4644.91  4654.08
                             4657.23  4699.73  4726.24  4915.10

 Zero-point correction=                           0.427282 (Hartree/Particle)
 Thermal correction to Energy=                    0.451040
 Thermal correction to Enthalpy=                  0.451984
 Thermal correction to Gibbs Free Energy=         0.372691
 Sum of electronic and zero-point Energies=          -1315.357331
 Sum of electronic and thermal Energies=             -1315.333572
 Sum of electronic and thermal Enthalpies=           -1315.332628
 Sum of electronic and thermal Free Energies=        -1315.411921

                     E (Thermal)             CV                S
                      KCal/Mol        Cal/Mol-Kelvin    Cal/Mol-Kelvin
 Total                  283.032             94.653            166.887
 Electronic               0.000              0.000              0.000
 Translational            0.889              2.981             43.799
 Rotational               0.889              2.981             35.988
 Vibrational            281.254             88.691             87.100
 Vibration     1          0.593              1.986              6.772
 Vibration     2          0.593              1.985              6.435
 Vibration     3          0.594              1.982              5.504
 Vibration     4          0.595              1.977              4.774
 Vibration     5          0.597              1.972              4.349
 Vibration     6          0.599              1.964              3.962
 Vibration     7          0.602              1.954              3.604
 Vibration     8          0.603              1.952              3.521
 Vibration     9          0.605              1.946              3.382
 Vibration    10          0.609              1.933              3.103
 Vibration    11          0.621              1.893              2.569
 Vibration    12          0.631              1.861              2.285
 Vibration    13          0.633              1.856              2.247
 Vibration    14          0.636              1.844              2.163
 Vibration    15          0.650              1.801              1.908
 Vibration    16          0.660              1.772              1.769
 Vibration    17          0.661              1.766              1.746
 Vibration    18          0.672              1.734              1.616
 Vibration    19          0.696              1.665              1.391
 Vibration    20          0.700              1.651              1.353
 Vibration    21          0.705              1.638              1.318
 Vibration    22          0.715              1.610              1.246
 Vibration    23          0.718              1.600              1.222
 Vibration    24          0.728              1.573              1.162
 Vibration    25          0.743              1.532              1.075
 Vibration    26          0.756              1.498              1.011
 Vibration    27          0.770              1.460              0.945
 Vibration    28          0.784              1.423              0.887
 Vibration    29          0.785              1.421              0.883
 Vibration    30          0.803              1.375              0.815
 Vibration    31          0.818              1.339              0.766
 Vibration    32          0.841              1.283              0.696
 Vibration    33          0.858              1.244              0.652
 Vibration    34          0.891              1.169              0.573
 Vibration    35          0.914              1.120              0.526
 Vibration    36          0.947              1.054              0.468
 Vibration    37          0.953              1.042              0.458

 Optimization completed on the basis of negligible forces.
    -- Stationary point found.
 Normal termination of Gaussian 16 at Tue Sep 26 16:39:21 2023.
